 Entering Gaussian System, Link 0=g03
 Input=methane_orbitals_1.DATA
 Output=methane_orbitals_1.log
 Initial command:
 /aplic/g03/l1.exe /scratch/g2invitado1/Gau-31217.inp -scrdir=/scratch/g2invitado1/
 Entering Link 1 = /aplic/g03/l1.exe PID=     31218.
  
 Copyright (c) 1988,1990,1992,1993,1995,1998,2003, Gaussian, Inc.
                  All Rights Reserved.
  
 This is the Gaussian(R) 03 program.  It is based on the
 the Gaussian(R) 98 system (copyright 1998, Gaussian, Inc.),
 the Gaussian(R) 94 system (copyright 1995, Gaussian, Inc.),
 the Gaussian 92(TM) system (copyright 1992, Gaussian, Inc.),
 the Gaussian 90(TM) system (copyright 1990, Gaussian, Inc.),
 the Gaussian 88(TM) system (copyright 1988, Gaussian, Inc.),
 the Gaussian 86(TM) system (copyright 1986, Carnegie Mellon
 University), and the Gaussian 82(TM) system (copyright 1983,
 Carnegie Mellon University). Gaussian is a federally registered
 trademark of Gaussian, Inc.
  
 This software contains proprietary and confidential information,
 including trade secrets, belonging to Gaussian, Inc.
  
 This software is provided under written license and may be
 used, copied, transmitted, or stored only in accord with that
 written license.
  
 The following legend is applicable only to US Government
 contracts under DFARS:
  
                    RESTRICTED RIGHTS LEGEND
  
 Use, duplication or disclosure by the US Government is subject
 to restrictions as set forth in subparagraph (c)(1)(ii) of the
 Rights in Technical Data and Computer Software clause at DFARS
 252.227-7013.
  
 Gaussian, Inc.
 Carnegie Office Park, Building 6, Pittsburgh, PA 15106 USA
  
 The following legend is applicable only to US Government
 contracts under FAR:
  
                    RESTRICTED RIGHTS LEGEND
  
 Use, reproduction and disclosure by the US Government is subject
 to restrictions as set forth in subparagraph (c) of the
 Commercial Computer Software - Restricted Rights clause at FAR
 52.227-19.
  
 Gaussian, Inc.
 Carnegie Office Park, Building 6, Pittsburgh, PA 15106 USA
  
  
 ---------------------------------------------------------------
 Warning -- This program may not be used in any manner that
 competes with the business of Gaussian, Inc. or will provide
 assistance to any competitor of Gaussian, Inc.  The licensee
 of this program is prohibited from giving any competitor of
 Gaussian, Inc. access to this program.  By using this program,
 the user acknowledges that Gaussian, Inc. is engaged in the
 business of creating and licensing software in the field of
 computational chemistry and represents and warrants to the
 licensee that it is not a competitor of Gaussian, Inc. and that
 it will not use this program in any manner prohibited above.
 ---------------------------------------------------------------
  

 Cite this work as:
 Gaussian 03, Revision B.04,
 M. J. Frisch, G. W. Trucks, H. B. Schlegel, G. E. Scuseria, 
 M. A. Robb, J. R. Cheeseman, J. A. Montgomery, Jr., T. Vreven, 
 K. N. Kudin, J. C. Burant, J. M. Millam, S. S. Iyengar, J. Tomasi, 
 V. Barone, B. Mennucci, M. Cossi, G. Scalmani, N. Rega, 
 G. A. Petersson, H. Nakatsuji, M. Hada, M. Ehara, K. Toyota, 
 R. Fukuda, J. Hasegawa, M. Ishida, T. Nakajima, Y. Honda, O. Kitao, 
 H. Nakai, M. Klene, X. Li, J. E. Knox, H. P. Hratchian, J. B. Cross, 
 C. Adamo, J. Jaramillo, R. Gomperts, R. E. Stratmann, O. Yazyev, 
 A. J. Austin, R. Cammi, C. Pomelli, J. W. Ochterski, P. Y. Ayala, 
 K. Morokuma, G. A. Voth, P. Salvador, J. J. Dannenberg, 
 V. G. Zakrzewski, S. Dapprich, A. D. Daniels, M. C. Strain, 
 O. Farkas, D. K. Malick, A. D. Rabuck, K. Raghavachari, 
 J. B. Foresman, J. V. Ortiz, Q. Cui, A. G. Baboul, S. Clifford, 
 J. Cioslowski, B. B. Stefanov, G. Liu, A. Liashenko, P. Piskorz, 
 I. Komaromi, R. L. Martin, D. J. Fox, T. Keith, M. A. Al-Laham, 
 C. Y. Peng, A. Nanayakkara, M. Challacombe, P. M. W. Gill, 
 B. Johnson, W. Chen, M. W. Wong, C. Gonzalez, and J. A. Pople, 
 Gaussian, Inc., Pittsburgh PA, 2003.
 
 *********************************************
 Gaussian 03:  x86-Linux-G03RevB.04 2-Jun-2003
                  22-Mar-2009 
 *********************************************
 %chk=/home/g2invitado1/luis/laboratori/ex3/methane_orbitals_1.chk
 %int=/scratch/g2invitado1/methane_orbitals_1.int
 %scr=/scratch/g2invitado1/methane_orbitals_1.scr
 %rwf=/scratch/g2invitado1/methane_orbitals_1.rwf
 %d2e=/scratch/g2invitado1/methane_orbitals_1.d2e
 %nprocl=4
 Will use up to    4 processors via Linda.
 --------------------------------
 #p hf/STO-3G gfoldprint pop=full
 --------------------------------
 1/38=1/1;
 2/17=6,18=5,40=1/2;
 3/6=3,11=9,16=1,24=1,25=1,30=1/1,2,3;
 4//1;
 5/5=2,32=1,38=5/2;
 6/7=3,28=1/1;
 99/5=1,9=1/99;
 Leave Link    1 at Sun Mar 22 15:23:25 2009, MaxMem=          0 cpu:       0.1
 (Enter /aplic/g03/l101.exe)
 ---------------
 Methane minimal
 ---------------
 Symbolic Z-matrix:
 Charge =  0 Multiplicity = 1
 6                     0.        0.        0.00001 
 1                     0.        1.00881   0.35665 
 1                     0.        0.       -1.06999 
 1                     0.87366  -0.50441   0.35665 
 1                    -0.87366  -0.50441   0.35665 
 
                    Isotopes and Nuclear Properties:

  Atom         1           2           3           4           5
 IAtWgt=          12           1           1           1           1
 AtmWgt=  12.0000000   1.0078250   1.0078250   1.0078250   1.0078250
 IAtSpn=           0           1           1           1           1
 AtZEff=   0.0000000   0.0000000   0.0000000   0.0000000   0.0000000
 AtQMom=   0.0000000   0.0000000   0.0000000   0.0000000   0.0000000
 AtGFac=   0.0000000   2.7928460   2.7928460   2.7928460   2.7928460
 Leave Link  101 at Sun Mar 22 15:23:25 2009, MaxMem=    6291456 cpu:       0.0
 (Enter /aplic/g03/l202.exe)
                          Input orientation:                          
 ---------------------------------------------------------------------
 Center     Atomic     Atomic              Coordinates (Angstroms)
 Number     Number      Type              X           Y           Z
 ---------------------------------------------------------------------
    1          6             0        0.000000    0.000000    0.000006
    2          1             0        0.000000    1.008813    0.356652
    3          1             0        0.000000    0.000000   -1.069994
    4          1             0        0.873658   -0.504407    0.356652
    5          1             0       -0.873658   -0.504407    0.356652
 ---------------------------------------------------------------------
                    Distance matrix (angstroms):
                    1          2          3          4          5
     1  C    0.000000
     2  H    1.070000   0.000000
     3  H    1.070000   1.747290   0.000000
     4  H    1.070001   1.747316   1.747290   0.000000
     5  H    1.070001   1.747316   1.747290   1.747316   0.000000
 This structure is nearly, but not quite of a higher symmetry.
 Consider Symm=Loose if the higher symmetry is desired.
 Stoichiometry    CH4
 Framework group  CS[SG(CH2),X(H2)]
 Deg. of freedom     6
 Full point group                 CS      NOp   2
 Largest Abelian subgroup         CS      NOp   2
 Largest concise Abelian subgroup CS      NOp   2
                         Standard orientation:                         
 ---------------------------------------------------------------------
 Center     Atomic     Atomic              Coordinates (Angstroms)
 Number     Number      Type              X           Y           Z
 ---------------------------------------------------------------------
    1          6             0        0.000000    0.000006    0.000000
    2          1             0        1.003025    0.372620    0.000000
    3          1             0        0.016983   -1.069859    0.000000
    4          1             0       -0.510004    0.348601    0.873658
    5          1             0       -0.510004    0.348601   -0.873658
 ---------------------------------------------------------------------
 Rotational constants (GHZ):    164.2474968    164.2474922    164.2438658
 Leave Link  202 at Sun Mar 22 15:23:25 2009, MaxMem=    6291456 cpu:       0.1
 (Enter /aplic/g03/l301.exe)
 Standard basis: STO-3G (5D, 7F)
 ***********************************************************************************************************************************
 *             ATOMIC CENTER             *        ATOMIC ORBITAL       *                     GAUSSIAN FUNCTIONS                    *
 ***********************************************************************************************************************************
 *                                       * FUNCTION    SHELL    SCALE  *                                                           *
 *    ATOM   X-COORD  Y-COORD  Z-COORD   *  NUMBER     TYPE     FACTOR *  EXPONENT    S-COEF      P-COEF      D-COEF      F-COEF   *
 ***********************************************************************************************************************************
 *     C      0.00000  0.00001  0.00000                                                                                            *
+                                                1     S         5.67                                                               
+                                                                      0.222766D+010.154329D+000.000000D+000.000000D+000.000000D+00 
 *                                                                     0.405771D+000.535328D+000.000000D+000.000000D+000.000000D+00*
 *                                                                     0.109818D+000.444635D+000.000000D+000.000000D+000.000000D+00*
 *                                           2-  5     SP        1.72                                                              *
+                                                                      0.994203D+00-.999672D-010.155916D+000.000000D+000.000000D+00 
 *                                                                     0.231031D+000.399513D+000.607684D+000.000000D+000.000000D+00*
 *                                                                     0.751386D-010.700115D+000.391957D+000.000000D+000.000000D+00*
 *---------------------------------------------------------------------------------------------------------------------------------*
 *     H      1.89544  0.70415  0.00000                                                                                            *
+                                                6     S         1.24                                                               
+                                                                      0.222766D+010.154329D+000.000000D+000.000000D+000.000000D+00 
 *                                                                     0.405771D+000.535328D+000.000000D+000.000000D+000.000000D+00*
 *                                                                     0.109818D+000.444635D+000.000000D+000.000000D+000.000000D+00*
 *---------------------------------------------------------------------------------------------------------------------------------*
 *     H      0.03209 -2.02174  0.00000                                                                                            *
+                                                7     S         1.24                                                               
+                                                                      0.222766D+010.154329D+000.000000D+000.000000D+000.000000D+00 
 *                                                                     0.405771D+000.535328D+000.000000D+000.000000D+000.000000D+00*
 *                                                                     0.109818D+000.444635D+000.000000D+000.000000D+000.000000D+00*
 *---------------------------------------------------------------------------------------------------------------------------------*
 *     H     -0.96377  0.65876  1.65097                                                                                            *
+                                                8     S         1.24                                                               
+                                                                      0.222766D+010.154329D+000.000000D+000.000000D+000.000000D+00 
 *                                                                     0.405771D+000.535328D+000.000000D+000.000000D+000.000000D+00*
 *                                                                     0.109818D+000.444635D+000.000000D+000.000000D+000.000000D+00*
 *---------------------------------------------------------------------------------------------------------------------------------*
 *     H     -0.96377  0.65876 -1.65097                                                                                            *
+                                                9     S         1.24                                                               
+                                                                      0.222766D+010.154329D+000.000000D+000.000000D+000.000000D+00 
 *                                                                     0.405771D+000.535328D+000.000000D+000.000000D+000.000000D+00*
 *                                                                     0.109818D+000.444635D+000.000000D+000.000000D+000.000000D+00*
 ***********************************************************************************************************************************
 There are     7 symmetry adapted basis functions of A'  symmetry.
 There are     2 symmetry adapted basis functions of A"  symmetry.
 Integral buffers will be    262144 words long.
 Raffenetti 1 integral format.
 Two-electron integral symmetry is turned on.
     9 basis functions,    27 primitive gaussians,     9 cartesian basis functions
     5 alpha electrons        5 beta electrons
       nuclear repulsion energy        13.6865146377 Hartrees.
 IExCor=   0 DFT=F Ex=HF Corr=None ExCW=0 ScaHFX=  1.000000
 ScaDFX=  1.000000  1.000000  1.000000  1.000000
 IRadAn=      0 IRanWt=     -1 IRanGd=            0 ICorTp=0
 NAtoms=    5 NActive=    5 NUniq=    4 SFac= 1.75D+00 NAtFMM=   60 Big=F
 Leave Link  301 at Sun Mar 22 15:23:25 2009, MaxMem=    6291456 cpu:       0.0
 (Enter /aplic/g03/linda-exe/l302.exel)
 NPDir=0 NMtPBC=     1 NCelOv=     1 NCel=       1 NClECP=     1 NCelD=      1
         NCelK=      1 NCelE2=     1 NClLst=     1 CellRange=     0.0.
 One-electron integrals computed using PRISM.
 One-electron integral symmetry used in STVInt
 NBasis=     9 RedAO= T  NBF=     7     2
 NBsUse=     9 1.00D-06 NBFU=     7     2
 Leave Link  302 at Sun Mar 22 15:23:26 2009, MaxMem=    6291456 cpu:       0.1
 (Enter /aplic/g03/l303.exe)
 DipDrv:  MaxL=1.
 Leave Link  303 at Sun Mar 22 15:23:26 2009, MaxMem=    6291456 cpu:       0.0
 (Enter /aplic/g03/l401.exe)
 Harris functional with IExCor=  205 diagonalized for initial guess.
 ExpMin= 1.69D-01 ExpMax= 7.16D+01 ExpMxC= 7.16D+01 IAcc=1 IRadAn=         1 AccDes= 1.00D-06
 HarFok:  IExCor= 205 AccDes= 1.00D-06 IRadAn=         1 IDoV=1
 ScaDFX=  1.000000  1.000000  1.000000  1.000000
 Harris En= -39.8926130431631    
 Initial guess orbital symmetries:
       Occupied  (A') (A') (A') (A") (A')
       Virtual   (A') (A") (A') (A')
 The electronic state of the initial guess is 1-A'.
 Leave Link  401 at Sun Mar 22 15:23:26 2009, MaxMem=    6291456 cpu:       0.1
 (Enter /aplic/g03/linda-exe/l502.exel)
 Warning!  Cutoffs for single-point calculations used.
 Closed shell SCF:
 Requested convergence on RMS density matrix=1.00D-04 within 128 cycles.
 Requested convergence on MAX density matrix=1.00D-02.
 Requested convergence on             energy=5.00D-05.
 No special actions if energy rises.
 Using DIIS extrapolation, IDIIS=  1040.
 Integral symmetry usage will be decided dynamically.
 Keep R1 integrals in memory in canonical form, NReq=      420266.
 IEnd=     18766 IEndB=     18766 NGot=   6291456 MDV=   6288744
 LenX=   6288744
 Symmetry not used in FoFDir.
 MinBra= 0 MaxBra= 1 Meth= 1.
 IRaf=       0 NMat=   1 IRICut=       1 DoRegI=T DoRafI=F ISym2E= 0 JSym2E=0.

 Cycle   1  Pass 1  IDiag  1:
 E= -39.6570398060766    
 DIIS: error= 5.81D-02 at cycle   1 NSaved=   1.
 NSaved= 1 IEnMin= 1 EnMin= -39.6570398060766     IErMin= 1 ErrMin= 5.81D-02
 ErrMax= 5.81D-02 EMaxC= 1.00D-01 BMatC= 5.85D-02 BMatP= 5.85D-02
 IDIUse=3 WtCom= 4.19D-01 WtEn= 5.81D-01
 Coeff-Com:  0.100D+01
 Coeff-En:   0.100D+01
 Coeff:      0.100D+01
 Gap=     1.237 Goal=   None    Shift=    0.000
 GapD=    1.237 DampG=2.000 DampE=0.500 DampFc=1.0000 IDamp=-1.
 RMSDP=3.91D-02 MaxDP=1.39D-01              OVMax= 0.00D+00

 Cycle   2  Pass 1  IDiag  1:
 E= -39.7244127523749     Delta-E=       -0.067372946298 Rises=F Damp=F
 DIIS: error= 1.28D-02 at cycle   2 NSaved=   2.
 NSaved= 2 IEnMin= 2 EnMin= -39.7244127523749     IErMin= 2 ErrMin= 1.28D-02
 ErrMax= 1.28D-02 EMaxC= 1.00D-01 BMatC= 1.82D-03 BMatP= 5.85D-02
 IDIUse=3 WtCom= 8.72D-01 WtEn= 1.28D-01
 Coeff-Com:  0.120D+00 0.880D+00
 Coeff-En:   0.000D+00 0.100D+01
 Coeff:      0.104D+00 0.896D+00
 Gap=     1.255 Goal=   None    Shift=    0.000
 RMSDP=5.89D-03 MaxDP=2.63D-02 DE=-6.74D-02 OVMax= 0.00D+00

 Cycle   3  Pass 1  IDiag  1:
 E= -39.7262707844657     Delta-E=       -0.001858032091 Rises=F Damp=F
 DIIS: error= 6.02D-04 at cycle   3 NSaved=   3.
 NSaved= 3 IEnMin= 3 EnMin= -39.7262707844657     IErMin= 3 ErrMin= 6.02D-04
 ErrMax= 6.02D-04 EMaxC= 1.00D-01 BMatC= 5.11D-06 BMatP= 1.82D-03
 IDIUse=3 WtCom= 9.94D-01 WtEn= 6.02D-03
 Coeff-Com: -0.926D-02-0.144D-01 0.102D+01
 Coeff-En:   0.000D+00 0.000D+00 0.100D+01
 Coeff:     -0.920D-02-0.143D-01 0.102D+01
 Gap=     1.257 Goal=   None    Shift=    0.000
 RMSDP=3.55D-04 MaxDP=1.14D-03 DE=-1.86D-03 OVMax= 0.00D+00

 Cycle   4  Pass 1  IDiag  1:
 E= -39.7262782646190     Delta-E=       -0.000007480153 Rises=F Damp=F
 DIIS: error= 1.30D-04 at cycle   4 NSaved=   4.
 NSaved= 4 IEnMin= 4 EnMin= -39.7262782646190     IErMin= 4 ErrMin= 1.30D-04
 ErrMax= 1.30D-04 EMaxC= 1.00D-01 BMatC= 1.09D-07 BMatP= 5.11D-06
 IDIUse=3 WtCom= 9.99D-01 WtEn= 1.30D-03
 Coeff-Com:  0.253D-02 0.456D-03-0.313D+00 0.131D+01
 Coeff-En:   0.000D+00 0.000D+00 0.000D+00 0.100D+01
 Coeff:      0.253D-02 0.455D-03-0.312D+00 0.131D+01
 Gap=     1.257 Goal=   None    Shift=    0.000
 RMSDP=7.12D-05 MaxDP=4.92D-04 DE=-7.48D-06 OVMax= 0.00D+00

 SCF Done:  E(RHF) =  -39.7262782646     A.U. after    4 cycles
             Convg  =    0.7119D-04             -V/T =  2.0055
             S**2   =   0.0000
 KE= 3.950712489624D+01 PE=-1.192833522239D+02 EE= 2.636343442530D+01
 Leave Link  502 at Sun Mar 22 15:23:27 2009, MaxMem=    6291456 cpu:       0.1
 (Enter /aplic/g03/l601.exe)
 Copying SCF densities to generalized density rwf, ISCF=0 IROHF=0.

 **********************************************************************

            Population analysis using the SCF density.

 **********************************************************************

 Orbital symmetries:
       Occupied  (A') (A') (A') (A") (A')
       Virtual   (A') (A") (A') (A')
 The electronic state is 1-A'.
 Alpha  occ. eigenvalues --  -11.02863  -0.91890  -0.52569  -0.52569  -0.52568
 Alpha virt. eigenvalues --    0.73090   0.73091   0.73092   0.78108
     Molecular Orbital Coefficients
                           1         2         3         4         5
                        (A')--O   (A')--O   (A')--O   (A")--O   (A')--O
     EIGENVALUES --   -11.02863  -0.91890  -0.52569  -0.52569  -0.52568
   1 1   C  1S          0.99186  -0.22196   0.00000   0.00000   0.00000
   2        2S          0.03898   0.62402   0.00000   0.00000   0.00001
   3        2PX         0.00000   0.00000   0.57350   0.00000  -0.01215
   4        2PY         0.00000  -0.00001   0.01215   0.00000   0.57350
   5        2PZ         0.00000   0.00000   0.00000   0.57362   0.00000
   6 2   H  1S         -0.00717   0.18018   0.48992   0.00000   0.17029
   7 3   H  1S         -0.00717   0.18018  -0.00276   0.00000  -0.51867
   8 4   H  1S         -0.00717   0.18018  -0.24358   0.42349   0.17419
   9 5   H  1S         -0.00717   0.18018  -0.24358  -0.42349   0.17419
                           6         7         8         9
                        (A')--V   (A")--V   (A')--V   (A')--V
     EIGENVALUES --     0.73090   0.73091   0.73092   0.78108
   1 1   C  1S         -0.00004   0.00000   0.00000  -0.25346
   2        2S          0.00028   0.00000   0.00000   1.66780
   3        2PX        -0.02763   0.00000   1.11525   0.00001
   4        2PY         1.11524   0.00000   0.02763  -0.00021
   5        2PZ         0.00000   1.11559   0.00000   0.00000
   6 2   H  1S         -0.35109   0.00000  -1.02154  -0.67675
   7 3   H  1S          1.07999   0.00000   0.00961  -0.67699
   8 4   H  1S         -0.36467  -0.88194   0.50597  -0.67675
   9 5   H  1S         -0.36467   0.88194   0.50597  -0.67675
      DENSITY MATRIX.
                           1         2         3         4         5
   1 1   C  1S          2.06612
   2        2S         -0.19969   0.78183
   3        2PX         0.00000   0.00000   0.65809
   4        2PY         0.00000   0.00000   0.00000   0.65810
   5        2PZ         0.00000   0.00000   0.00000   0.00000   0.65809
   6 2   H  1S         -0.09421   0.22431   0.55779   0.20723   0.00000
   7 3   H  1S         -0.09420   0.22430   0.00944  -0.59498   0.00000
   8 4   H  1S         -0.09421   0.22431  -0.28362   0.19387   0.48585
   9 5   H  1S         -0.09421   0.22431  -0.28362   0.19387  -0.48585
                           6         7         8         9
   6 2   H  1S          0.60307
   7 3   H  1S         -0.11432   0.60308
   8 4   H  1S         -0.11432  -0.11432   0.60307
   9 5   H  1S         -0.11432  -0.11432  -0.11432   0.60307
    Full Mulliken population analysis:
                           1         2         3         4         5
   1 1   C  1S          2.06612
   2        2S         -0.04960   0.78183
   3        2PX         0.00000   0.00000   0.65809
   4        2PY         0.00000   0.00000   0.00000   0.65810
   5        2PZ         0.00000   0.00000   0.00000   0.00000   0.65809
   6 2   H  1S         -0.00615   0.11268   0.24787   0.03421   0.00000
   7 3   H  1S         -0.00615   0.11267   0.00007   0.28201   0.00000
   8 4   H  1S         -0.00615   0.11268   0.06408   0.02994   0.18805
   9 5   H  1S         -0.00615   0.11268   0.06408   0.02994   0.18805
                           6         7         8         9
   6 2   H  1S          0.60307
   7 3   H  1S         -0.02035   0.60308
   8 4   H  1S         -0.02035  -0.02035   0.60307
   9 5   H  1S         -0.02035  -0.02035  -0.02035   0.60307
     Gross orbital populations:
                           1
   1 1   C  1S          1.99194
   2        2S          1.18293
   3        2PX         1.03420
   4        2PY         1.03420
   5        2PZ         1.03420
   6 2   H  1S          0.93063
   7 3   H  1S          0.93063
   8 4   H  1S          0.93063
   9 5   H  1S          0.93063
          Condensed to atoms (all electrons):
              1          2          3          4          5
     1  C    4.723037   0.388607   0.388605   0.388607   0.388607
     2  H    0.388607   0.603069  -0.020349  -0.020347  -0.020347
     3  H    0.388605  -0.020349   0.603075  -0.020349  -0.020349
     4  H    0.388607  -0.020347  -0.020349   0.603069  -0.020347
     5  H    0.388607  -0.020347  -0.020349  -0.020347   0.603069
 Mulliken atomic charges:
              1
     1  C   -0.277465
     2  H    0.069367
     3  H    0.069365
     4  H    0.069367
     5  H    0.069367
 Sum of Mulliken charges=   0.00000
 Atomic charges with hydrogens summed into heavy atoms:
              1
     1  C    0.000000
     2  H    0.000000
     3  H    0.000000
     4  H    0.000000
     5  H    0.000000
 Sum of Mulliken charges=   0.00000
 Electronic spatial extent (au):  <R**2>=    33.8386
 Charge=     0.0000 electrons
 Dipole moment (field-independent basis, Debye):
    X=     0.0000    Y=     0.0000    Z=     0.0000  Tot=     0.0000
 Quadrupole moment (field-independent basis, Debye-Ang):
   XX=    -7.8391   YY=    -7.8392   ZZ=    -7.8391
   XY=     0.0000   XZ=     0.0000   YZ=     0.0000
 Traceless Quadrupole moment (field-independent basis, Debye-Ang):
   XX=     0.0000   YY=    -0.0001   ZZ=     0.0000
   XY=     0.0000   XZ=     0.0000   YZ=     0.0000
 Octapole moment (field-independent basis, Debye-Ang**2):
  XXX=     0.4403  YYY=    -0.6440  ZZZ=     0.0000  XYY=     0.0206
  XXY=     0.3290  XXZ=     0.0000  XZZ=    -0.4608  YZZ=     0.3150
  YYZ=     0.0000  XYZ=     0.0000
 Hexadecapole moment (field-independent basis, Debye-Ang**3):
 XXXX=   -12.9798 YYYY=   -12.7821 ZZZZ=   -12.9633 XXXY=     0.2648
 XXXZ=     0.0000 YYYX=    -0.0113 YYYZ=     0.0000 ZZZX=     0.0000
 ZZZY=     0.0000 XXYY=    -4.4940 XXZZ=    -4.3130 YYZZ=    -4.5105
 XXYZ=     0.0000 YYXZ=     0.0000 ZZXY=    -0.2534
 N-N= 1.368651463772D+01 E-N=-1.192834420373D+02  KE= 3.950712489624D+01
 Symmetry A'   KE= 3.755201348405D+01
 Symmetry A"   KE= 1.955111412198D+00
 Orbital energies and kinetic energies (alpha):
                           1         2
       1  (A')--O     -11.02863  15.62812
       2  (A')--O      -0.91890   1.19276
       3  (A')--O      -0.52569   0.97756
       4  (A")--O      -0.52569   0.97756
       5  (A')--O      -0.52568   0.97756
       6  (A')--V       0.73090   2.14912
       7  (A")--V       0.73091   2.14915
       8  (A')--V       0.73092   2.14915
       9  (A')--V       0.78108   2.73671
 Total kinetic energy from orbitals= 3.950712489624D+01
 No NMR shielding tensors so no spin-rotation constants.
 Leave Link  601 at Sun Mar 22 15:23:27 2009, MaxMem=    6291456 cpu:       0.2
 (Enter /aplic/g03/l9999.exe)
 1\1\GINC-G2NODE11\SP\RHF\STO-3G\C1H4\G2INVITADO1\22-Mar-2009\0\\#P HF/
 STO-3G GFOLDPRINT POP=FULL\\Methane minimal\\0,1\C,0,0.,0.,0.000006\H,
 0,0.,1.008813,0.356652\H,0,0.,0.,-1.069994\H,0,0.873658,-0.504407,0.35
 6652\H,0,-0.873658,-0.504407,0.356652\\Version=x86-Linux-G03RevB.04\St
 ate=1-A'\HF=-39.7262783\RMSD=7.119e-05\Dipole=0.,0.,-0.0000062\PG=CS [
 SG(C1H2),X(H2)]\\@


 ... A MOLECULAR SYSTEM ... (PASSES) ... FROM ONE STATE OF EQUILIBRIUM 
 TO ANOTHER ... BY MEANS OF ALL POSSIBLE INTERMEDIATE PATHS, 
 BUT THE PATH MOST ECONOMICAL OF ENERGY WILL BE THE MORE OFTEN TRAVELED.

                      -- HENRY EYRING, 1945
 Job cpu time:  0 days  0 hours  0 minutes  1.4 seconds.
 File lengths (MBytes):  RWF=     11 Int=      0 D2E=      0 Chk=      7 Scr=      1
 Normal termination of Gaussian 03 at Sun Mar 22 15:23:27 2009.
setenv GAUSS_EXEDIR /aplic/g03/linda-exe:/aplic/g03/bsd:/aplic/g03/local:/aplic/g03/extras:/aplic/g03
g03 methane_orbitals_1.DATA methane_orbitals_1.log
Warning: no access to tty (Bad file descriptor).
Thus no job control in this shell.
-catch_rsh /sgeinst/default/spool/g2node11/active_jobs/51488.1/pe_hostfile
g2node11
g2node12
g2node8
g2node6
 
Datos del job al finalizar:
 
Sun Mar 22 15:23:27 CET 2009
job-ID  prior name       user         state submit/start at     queue      master  ja-task-ID 
---------------------------------------------------------------------------------------------
  51488     0 methane_or g2invitado1  t     03/22/2009 15:16:17 g2node11.q MASTER         
            0 methane_or g2invitado1  t     03/22/2009 15:16:17 g2node11.q SLAVE          
  51488     0 methane_or g2invitado1  t     03/22/2009 15:16:17 g2node12.q SLAVE          
  51488     0 methane_or g2invitado1  t     03/22/2009 15:16:17 g2node6.q  SLAVE          
  51488     0 methane_or g2invitado1  t     03/22/2009 15:16:17 g2node8.q  SLAVE          
 
-rw-rw-r--    1 g2invita grupo2          0 Mar 22 15:23 /scratch/g2invitado1/methane_orbitals_1.d2e
-rw-rw-r--    1 g2invita grupo2          0 Mar 22 15:23 /scratch/g2invitado1/methane_orbitals_1.int
-rw-rw-r--    1 g2invita grupo2   11177984 Mar 22 15:23 /scratch/g2invitado1/methane_orbitals_1.rwf
-rw-rw-r--    1 g2invita grupo2     524288 Mar 22 15:23 /scratch/g2invitado1/methane_orbitals_1.scr
-r--r--r--    1 g2invita grupo2       5511 Dec 14  2004 /scratch/g2invitado1/Gau-10290.inp
-r--r--r--    1 g2invita grupo2       4886 Feb 20  2006 /scratch/g2invitado1/Gau-1057.inp
-r--r--r--    1 g2invita grupo2       2569 Jul 27  2006 /scratch/g2invitado1/Gau-12325.inp
-r--r--r--    1 g2invita grupo2       3489 Jul 29  2006 /scratch/g2invitado1/Gau-14882.inp
-r--r--r--    1 g2invita grupo2       2321 Jun 15  2006 /scratch/g2invitado1/Gau-15155.inp
-r--r--r--    1 g2invita grupo2       2247 Apr 25  2005 /scratch/g2invitado1/Gau-1881.inp
-r--r--r--    1 g2invita grupo2       3768 Mar 17 15:15 /scratch/g2invitado1/Gau-19804.inp
-r--r--r--    1 g2invita grupo2       5347 Sep 18  2007 /scratch/g2invitado1/Gau-22088.inp
-r--r--r--    1 g2invita grupo2        666 Nov 23  2007 /scratch/g2invitado1/Gau-25918.inp
-r--r--r--    1 g2invita grupo2       3497 Feb 15  2006 /scratch/g2invitado1/Gau-29572.inp
-r--r--r--    1 g2invita grupo2       4165 Jul 19  2004 /scratch/g2invitado1/Gau-30503.inp
-r--r--r--    1 g2invita grupo2       2379 Apr 26  2005 /scratch/g2invitado1/Gau-3926.inp
-r--r--r--    1 g2invita grupo2       2545 May 14  2008 /scratch/g2invitado1/Gau-4418.inp
-r--r--r--    1 g2invita grupo2       2278 Apr 11  2008 /scratch/g2invitado1/Gau-7486.inp
-r--r--r--    1 g2invita grupo2       3025 Jul 25  2004 /scratch/g2invitado1/Gau-8310.inp
-r--r--r--    1 g2invita grupo2       2876 Jul  5  2004 /scratch/g2invitado1/Gau-8841.inp
-r--r--r--    1 g2invita grupo2       2876 Jul  6  2004 /scratch/g2invitado1/Gau-9806.inp
